/*--------------------------------*- C++ -*----------------------------------*\
  =========                 |
  \\      /  F ield         | OpenFOAM: The Open Source CFD Toolbox
   \\    /   O peration     | Website:  https://openfoam.org
    \\  /    A nd           | Version:  7
     \\/     M anipulation  |
\*---------------------------------------------------------------------------*/
FoamFile
{
    version     2.0;
    format      ascii;
    class       volScalarField;
    object      omega;
}
// * * * * * * * * * * * * * * * * * * * * * * * * * * * * * * * * * * * * * //

dimensions      [0 0 -1 0 0 0 0];

internalField   uniform 6.17;

boundaryField
{
    left
    {
        type            fixedValue;
	value		uniform 6.17;
    }

    right
    {
        type            inletOutlet;
	inletValue	uniform 6.17;
        value           uniform 6.17;
    }

    down
    {
        type            symmetryPlane;
    }

    up
    {
        type            symmetryPlane;
    }

    cylinder
    {
        type            omegaWallFunction;
	value		uniform 6.17;
    }

    defaultFaces
    {
        type            empty;
    }
}

// ************************************************************************* //
