/*--------------------------------*- C++ -*----------------------------------*\
  =========                 |
  \\      /  F ield         | OpenFOAM: The Open Source CFD Toolbox
   \\    /   O peration     | Website:  https://openfoam.org
    \\  /    A nd           | Version:  7
     \\/     M anipulation  |
\*---------------------------------------------------------------------------*/
FoamFile
{
    version     2.0;
    format      ascii;
    class       volVectorField;
    object      U;
}
// * * * * * * * * * * * * * * * * * * * * * * * * * * * * * * * * * * * * * //

dimensions      [0 1 -1 0 0 0 0];

internalField   uniform (0 0 0);

boundaryField
{
    left
    {
        type            freestream;
        freestreamValue           uniform (5 0 0);
    }

    right
    {
        type            freestream;
	freestreamValue uniform (5 0 0);
    }

    down
    {
        type            symmetryPlane;
    }

    up
    {
        type            symmetryPlane;
    }

    cylinder
    {
        type            noSlip;
    }

    defaultFaces
    {
        type            empty;
    }
}

// ************************************************************************* //
