/*--------------------------------*- C++ -*----------------------------------*\
  =========                 |
  \\      /  F ield         | OpenFOAM: The Open Source CFD Toolbox
   \\    /   O peration     | Website:  https://openfoam.org
    \\  /    A nd           | Version:  7
     \\/     M anipulation  |
\*---------------------------------------------------------------------------*/
FoamFile
{
    version     2.0;
    format      ascii;
    class       volScalarField;
    object      k;
}
// * * * * * * * * * * * * * * * * * * * * * * * * * * * * * * * * * * * * * //

dimensions      [0 2 -2 0 0 0 0];

internalField   uniform 0.375;

boundaryField
{
    left
    {
        type         	fixedValue;
	value 		uniform 0.375;
    }

    right
    {
        type            inletOutlet;
	inletValue 	uniform 0.375;
        value           uniform 0.375;
    }

    down
    {
        type            symmetryPlane;
    }

    up
    {
        type            symmetryPlane;
    }

    cylinder
    {
        type            kqRWallFunction;
	value		uniform 0.375;
    }

    defaultFaces
    {
        type            empty;
    }
}

// ************************************************************************* //
